      16
 i =       0, E =       -0.9641201824
  C         1.6929290000       -0.3805940000        5.2508370000
  C         1.1895640000       -0.6989760000        6.7152360000
  H         2.4861540000       -1.0458510000        4.9978600000
  H         1.0227030000       -0.4542580000        4.4106330000
  H         2.0251730000        0.7071300000        5.3114430000
  H         0.3884090000        0.0907660000        7.0122320000
  H         0.5928310000       -1.6649630000        6.6687470000
  H         1.9657710000       -0.9214860000        7.4468120000
  C        -1.2228160000        0.4718620000       -5.2898800000
  C        -1.6514440000        0.6137600000       -6.6936830000
  H        -1.3352100000       -0.6466360000       -4.9484210000
  H        -0.1504400000        0.7763450000       -5.0680740000
  H        -1.7151320000        1.0779400000       -4.5677460000
  H        -1.5381630000        1.7187330000       -6.9294780000
  H        -1.1023040000       -0.1748720000       -7.3022250000
  H        -2.7379120000        0.4650300000       -6.8233810000
      16
 i =       1, E =       -0.9687799496
  C         1.6904444692       -0.3788046601        5.2401841089
  C         1.1857684724       -0.6981149684        6.7032766107
  H         2.4885832577       -1.0461255865        4.9860669414
  H         1.0152773834       -0.4531271790        4.3998083856
  H         2.0226660205        0.7017483260        5.2975472802
  H         0.3940807779        0.0858758765        7.0007226209
  H         0.5932163253       -1.6590144927        6.6573980968
  H         1.9632835444       -0.9171153506        7.4353643495
  C        -1.2193540644        0.4697122940       -5.2774196458
  C        -1.6489681716        0.6130342963       -6.6827763593
  H        -1.3313723092       -0.6379469253       -4.9395521217
  H        -0.1520103824        0.7722661671       -5.0608570186
  H        -1.7183345680        1.0795967602       -4.5546440236
  H        -1.5333254450        1.7107571599       -6.9209812768
  H        -1.1025316370       -0.1685843457       -7.2901091405
  H        -2.7335741578        0.4622291651       -6.8113553362
      16
 i =       2, E =       -0.9788254742
  C         1.6882865881       -0.3758379034        5.2309060018
  C         1.1798813247       -0.6977034290        6.6902097057
  H         2.4995149121       -1.0480694372        4.9738430373
  H         0.9992368152       -0.4519586529        4.3909102659
  H         2.0208136355        0.6850707655        5.2788998677
  H         0.4147372379        0.0706051668        6.9894192245
  H         0.5987936503       -1.6448457922        6.6460905166
  H         1.9611086290       -0.9063307768        7.4237395353
  C        -1.2144515967        0.4656889749       -5.2628840688
  C        -1.6468356918        0.6129937046       -6.6727549200
  H        -1.3254014698       -0.6119235942       -4.9350529508
  H        -0.1606442667        0.7627857952       -5.0614311400
  H        -1.7319499715        1.0855974941       -4.5394062652
  H        -1.5241228117        1.6906455509       -6.9184144924
  H        -1.1076400227       -0.1489181873       -7.2773929500
  H        -2.7264513130        0.4560710876       -6.7981543243
      16
 i =       3, E =       -0.9856372939
  C         1.6864622905       -0.3723023670        5.2226659385
  C         1.1725638315       -0.6977436339        6.6760209064
  H         2.5148671263       -1.0491845720        4.9619961865
  H         0.9770833832       -0.4508833152        4.3857929587
  H         2.0207769908        0.6619614272        5.2561452325
  H         0.4453108761        0.0498637495        6.9796644137
  H         0.6070505086       -1.6268454872        6.6346257873
  H         1.9592823959       -0.8896053563        7.4116706803
  C        -1.2086613238        0.4605169692       -5.2464385885
  C        -1.6451039897        0.6135186851       -6.6632886239
  H        -1.3181337917       -0.5756279760       -4.9326925164
  H        -0.1723255304        0.7496037025       -5.0681151445
  H        -1.7526754835        1.0931398806       -4.5249980221
  H        -1.5106413571        1.6631909043       -6.9221035075
  H        -1.1151120352       -0.1199300571       -7.2664825592
  H        -2.7181861918        0.4467701992       -6.7839558872
      16
 i =       4, E =       -0.9843911601
  C         1.6849066073       -0.3690248936        5.2150543921
  C         1.1648734569       -0.6982952767        6.6606603814
  H         2.5298716821       -1.0469289089        4.9513447162
  H         0.9520194021       -0.4500945504        4.3864316946
  H         2.0243479762        0.6398638031        5.2302131432
  H         0.4774252915        0.0318672499        6.9738562748
  H         0.6142195965       -1.6116070372        6.6227596596
  H         1.9578959007       -0.8677893958        7.3987543703
  C        -1.2027325686        0.4553361818       -5.2284897127
  C        -1.6438933130        0.6144293830       -6.6538845299
  H        -1.3110446018       -0.5413599043       -4.9286121901
  H        -0.1809350597        0.7353101714       -5.0784382389
  H        -1.7763148722        1.0990969755       -4.5144673101
  H        -1.4930531315        1.6356031545       -6.9324925322
  H        -1.1211310637       -0.0878390910       -7.2609851840
  H        -2.7109014936        0.4347321557       -6.7690199433
      16
 i =       5, E =       -0.9813632467
  C         1.6834808489       -0.3667815030        5.2077195024
  C         1.1579950806       -0.6994741408        6.6440654115
  H         2.5405744530       -1.0398166986        4.9423609028
  H         0.9270870195       -0.4498113453        4.3940350255
  H         2.0333214257        0.6266248401        5.2021066193
  H         0.5014607720        0.0261301767        6.9748791337
  H         0.6164451412       -1.6058764494        6.6103674892
  H         1.9570752792       -0.8421383043        7.3844872127
  C        -1.1973806363        0.4514625448       -5.2096653370
  C        -1.6433470620        0.6155245886       -6.6440349275
  H        -1.3059836418       -0.5242153077       -4.9181152837
  H        -0.1801555355        0.7226891449       -5.0897388381
  H        -1.7988335394        1.1010816174       -4.5097262704
  H        -1.4717852350        1.6153600244       -6.9497544489
  H        -1.1217565047       -0.0593638248       -7.2644285806
  H        -2.7063804825        0.4206137866       -6.7536598280
      16
 i =       6, E =       -0.9853838840
  C         1.6820578263       -0.3659503898        5.2004458510
  C         1.1526776777       -0.7012898086        6.6263020934
  H         2.5446396790       -1.0278718611        4.9350155107
  H         0.9045673804       -0.4502336536        4.4085555375
  H         2.0482588966        0.6267400510        5.1727689839
  H         0.5114998238        0.0381446355        6.9840195338
  H         0.6116655656       -1.6131933570        6.5976437289
  H         1.9568833985       -0.8142554055        7.3683008623
  C        -1.1930388061        0.4497494487       -5.1905847261
  C        -1.6434932176        0.6166383383       -6.6334721723
  H        -1.3041869532       -0.5338554596       -4.8982139803
  H        -0.1667586858        0.7135917237       -5.0998328853
  H        -1.8170387635        1.0979232459       -4.5111042944
  H        -1.4479140591        1.6067796724       -6.9729977417
  H        -1.1149363240       -0.0389789410       -7.2779945308
  H        -2.7052873349        0.4053609115       -6.7382378108
      16
 i =       7, E =       -0.9915864329
  C         1.6806127010       -0.3662915386        5.1931645824
  C         1.1488178281       -0.7034685785        6.6077339839
  H         2.5416465516       -1.0126285338        4.9287552229
  H         0.8856517484       -0.4515040386        4.4285622795
  H         2.0674742552        0.6386971470        5.1431955703
  H         0.5090561359        0.0647868950        6.9987427244
  H         0.6009124811       -1.6315652066        6.5851511788
  H         1.9572189746       -0.7859420305        7.3496445094
  C        -1.1897162554        0.4499549845       -5.1716279998
  C        -1.6441131263        0.6176851013       -6.6223723749
  H        -1.3052328259       -0.5663861946       -4.8700859481
  H        -0.1429991089        0.7081719108       -5.1072504657
  H        -1.8290012195        1.0897970095       -4.5173423209
  H        -1.4235223172        1.6087500270       -6.9995722257
  H        -1.1019428626       -0.0270863938       -7.2988345359
  H        -2.7068595686        0.3901660389       -6.7231757830
      16
 i =       8, E =       -0.9898490667
  C         1.6792121592       -0.3670725342        5.1859165035
  C         1.1457047957       -0.7055706734        6.5889702965
  H         2.5330821649       -0.9968989153        4.9225533592
  H         0.8703275198       -0.4536880469        4.4513677737
  H         2.0874061591        0.6562799493        5.1145954375
  H         0.5006096443        0.0966239496        7.0134430727
  H         0.5876940664       -1.6546174454        6.5736107320
  H         1.9578552991       -0.7590137451        7.3281622820
  C        -1.1870337834        0.4509815882       -5.1530090066
  C        -1.6447844386        0.6186567964       -6.6112877196
  H        -1.3073972438       -0.6077361405       -4.8380417207
  H        -0.1155614160        0.7052472339       -5.1109635610
  H        -1.8343766899        1.0782690215       -4.5257098612
  H        -1.4014837281        1.6159784754       -7.0253552347
  H        -1.0866589622       -0.0209643954       -7.3209192745
  H        -2.7092755818        0.3763199430       -6.7089455862
      16
 i =       9, E =       -0.9803735801
  C         1.6779258097       -0.3674147212        5.1788016692
  C         1.1425668052       -0.7072253964        6.5706442978
  H         2.5219485301       -0.9843045006        4.9150585602
  H         0.8575250448       -0.4567704008        4.4734190904
  H         2.1040607139        0.6722873373        5.0883058871
  H         0.4926336211        0.1238754742        7.0223139680
  H         0.5761335440       -1.6749785907        6.5636073349
  H         1.9586244841       -0.7351417603        7.3039045019
  C        -1.1844013510        0.4516101294       -5.1349862690
  C        -1.6450546037        0.6195756805       -6.6008630270
  H        -1.3088636173       -0.6434349935       -4.8066027396
  H        -0.0921281916        0.7033066792       -5.1101018754
  H        -1.8345117972        1.0661871632       -4.5323028468
  H        -1.3846910657        1.6223359339       -7.0459505991
  H        -1.0734839813       -0.0172076244       -7.3376598688
  H        -2.7104542167        0.3650012657       -6.6960208658
      16
 i =      10, E =       -0.9713087263
  C         1.6767710425       -0.3665955665        5.1719132120
  C         1.1388775275       -0.7081996718        6.5532582908
  H         2.5117232632       -0.9784191117        4.9049221460
  H         0.8456511281       -0.4606478221        4.4910097858
  H         2.1142574157        0.6813023172        5.0655437777
  H         0.4891946280        0.1397934460        7.0212346997
  H         0.5694500648       -1.6869906370        6.5554258829
  H         1.9596014589       -0.7157356381        7.2774499770
  C        -1.1812417319        0.4509160799       -5.1179120296
  C        -1.6445733018        0.6204472376       -6.5915837667
  H        -1.3083904199       -0.6637802897       -4.7789648128
  H        -0.0785227118        0.7012397770       -5.1039269039
  H        -1.8319494480        1.0570786799       -4.5328271499
  H        -1.3753269534        1.6233839064       -7.0578331676
  H        -1.0657087808       -0.0134169534       -7.3440290662
  H        -2.7088500487        0.3570815441       -6.6848085883
      16
 i =      11, E =       -0.9696302895
  C         1.6757291448       -0.3642353944        5.1652494602
  C         1.1344160650       -0.7083537663        6.5371364479
  H         2.5047374870       -0.9815631691        4.8913050742
  H         0.8334806357       -0.4651020823        4.5012044624
  H         2.1161983091        0.6806727806        5.0472008346
  H         0.4918112075        0.1412031608        7.0082024172
  H         0.5692970581       -1.6878485540        6.5490348172
  H         1.9611614348       -0.7018607276        7.2498728771
  C        -1.1772006016        0.4483930792       -5.1021210718
  C        -1.6431343386        0.6212378445       -6.5836571883
  H        -1.3053834374       -0.6642931436       -4.7568540988
  H        -0.0774548203        0.6985794196       -5.0919334197
  H        -1.8290896472        1.0538648758       -4.5239892467
  H        -1.3745032452        1.6173300515       -7.0589342732
  H        -1.0648823416       -0.0087350718       -7.3374335944
  H        -2.7039657958        0.3529972209       -6.6755843662
      16
 i =      12, E =       -0.9754644148
  C         1.6747739431       -0.3603962070        5.1586446359
  C         1.1292578692       -0.7076016773        6.5224187888
  H         2.5008506285       -0.9938005045        4.8743261620
  H         0.8209997554       -0.4697627720        4.5025986334
  H         2.1096344807        0.6706196812        5.0337202921
  H         0.4997993155        0.1282562752        6.9832720472
  H         0.5756072845       -1.6778536230        6.5441423889
  H         1.9638717897       -0.6941809234        7.2225593827
  C        -1.1723114625        0.4440172285       -5.0877971109
  C        -1.6406803200        0.6218682594       -6.5769774959
  H        -1.2998244269       -0.6450620296       -4.7407005633
  H        -0.0882186425        0.6955227748       -5.0739335961
  H        -1.8265897122        1.0574200668       -4.5049251219
  H        -1.3821635950        1.6051653107       -7.0488394075
  H        -1.0707016486       -0.0038629327       -7.3178890982
  H        -2.6965123135        0.3527043288       -6.6684404290
      16
 i =      13, E =       -0.9821063660
  C         1.6738471087       -0.3555888085        5.1517771157
  C         1.1237852412       -0.7059189659        6.5090557151
  H         2.4975342879       -1.0128707086        4.8550965247
  H         0.8096144951       -0.4740985432        4.4954976659
  H         2.0959208150        0.6542277253        5.0250058206
  H         0.5103188116        0.1044801805        6.9486007657
  H         0.5866186397       -1.6603946439        6.5402791514
  H         1.9682417915       -0.6929157109        7.1969251121
  C        -1.1670337741        0.4382816811       -5.0749451720
  C        -1.6373142621        0.6222107895       -6.5711233663
  H        -1.2922851786       -0.6106951776       -4.7295985516
  H        -0.1067331769        0.6929304062       -5.0500833738
  H        -1.8228644036        1.0661243960       -4.4775765199
  H        -1.3970990291        1.5905715882       -7.0288379739
  H        -1.0810355302       -0.0009859347       -7.2880028467
  H        -2.6882216860        0.3557190253       -6.6632487065
      16
 i =      14, E =       -0.9822890261
  C         1.6727994173       -0.3506793037        5.1442587892
  C         1.1187029761       -0.7034016813        6.4968051674
  H         2.4913083176       -1.0351053864        4.8352854984
  H         0.8015519612       -0.4774694714        4.4814604389
  H         2.0779503336        0.6373094717        5.0203695915
  H         0.5181894282        0.0770563050        6.9085596491
  H         0.5991224640       -1.6415742945        6.5368934499
  H         1.9744001500       -0.6977996082        7.1741193996
  C        -1.1621078418        0.4321687236       -5.0634992417
  C        -1.6333101969        0.6220960170       -6.5653981471
  H        -1.2840299468       -0.5708743918       -4.7210228249
  H        -0.1260961017        0.6922631311       -5.0208489838
  H        -1.8151887006        1.0768259285       -4.4456837395
  H        -1.4171066679        1.5794699600       -7.0017683804
  H        -1.0921390821       -0.0035425918       -7.2527038653
  H        -2.6813178494        0.3612454545       -6.6596484545
      16
 i =      15, E =       -0.9774502424
  C         1.6713831476       -0.3466883247        5.1357420628
  C         1.1149478282       -0.7003289129        6.4852838709
  H         2.4793653636       -1.0566379137        4.8165374428
  H         0.7988918313       -0.4792249467        4.4625549114
  H         2.0596338151        0.6273546266        5.0186424983
  H         0.5163800413        0.0560435020        6.8691932560
  H         0.6092901093       -1.6287580075        6.5334330027
  H         1.9818129579       -0.7080453772        7.1548158335
  C        -1.1582682694        0.4270176356       -5.0534503268
  C        -1.6290645681        0.6213524278       -6.5589811335
  H        -1.2769720054       -0.5398214159       -4.7108228656
  H        -0.1384851699        0.6951855868       -4.9869497767
  H        -1.8012964803        1.0862858204       -4.4133048394
  H        -1.4394664771        1.5784496540       -6.9713055065
  H        -1.0995193278       -0.0153298872       -7.2181419720
  H        -2.6777112480        0.3683721235       -6.6570748196
      16
 i =      16, E =       -0.9777420451
  C         1.6693449955       -0.3444574996        5.1259834166
  C         1.1133298545       -0.6970860666        6.4741539083
  H         2.4605421947       -1.0743236205        4.8000387895
  H         0.8027768335       -0.4787974023        4.4407056455
  H         2.0445746031        0.6306079254        5.0185832226
  H         0.4988287526        0.0503906869        6.8359648657
  H         0.6142635826       -1.6275364784        6.5293490660
  H         1.9891829437       -0.7223467667        7.1391586436
  C        -1.1559262137        0.4240995849       -5.0448081934
  C        -1.6249418003        0.6198859881       -6.5512258523
  H        -1.2729977680       -0.5312455566       -4.6947585467
  H        -0.1386908973        0.7026258336       -4.9494151644
  H        -1.7803370943        1.0921314368       -4.3837825216
  H        -1.4617325078        1.5916117171       -6.9405459017
  H        -1.0997856514       -0.0384950481       -7.1893696609
  H        -2.6781702668        0.3762722622       -6.6548338151
      16
 i =      17, E =       -0.9852281788
  C         1.6665599581       -0.3442707042        5.1148632010
  C         1.1139936254       -0.6939052638        6.4633722265
  H         2.4356270417       -1.0862950154        4.7862950458
  H         0.8130197080       -0.4757609697        4.4172829841
  H         2.0344437599        0.6481914161        5.0193942586
  H         0.4652277229        0.0617338478        6.8106288986
  H         0.6136920345       -1.6385349027        6.5240134185
  H         1.9946635912       -0.7389813057        7.1268820494
  C        -1.1550031784        0.4238821161       -5.0373530435
  C        -1.6211030975        0.6177432494       -6.5419383397
  H        -1.2726793600       -0.5489580962       -4.6718245617
  H        -0.1271501293        0.7137938545       -4.9098507919
  H        -1.7530778908        1.0932014622       -4.3592846494
  H        -1.4823111406        1.6175128857       -6.9107617896
  H        -1.0925716405       -0.0713273300       -7.1680029682
  H        -2.6818930609        0.3843149896       -6.6521993842
      16
 i =      18, E =       -0.9891750840
  C         1.6630698518       -0.3457203442        5.1024030594
  C         1.1162561717       -0.6907667653        6.4531966390
  H         2.4072896984       -1.0922938946        4.7750553599
  H         0.8280548089       -0.4698601622        4.3929087814
  H         2.0285402182        0.6748741563        5.0208109740
  H         0.4224732855        0.0830684920        6.7909006675
  H         0.6097718973       -1.6570410381        6.5166943497
  H         1.9963990849       -0.7560316361        7.1175660326
  C        -1.1550144965        0.4257472700       -5.0305229889
  C        -1.6174946526        0.6150901415       -6.5313628635
  H        -1.2748399446       -0.5836669290       -4.6456650846
  H        -0.1094101114        0.7262071554       -4.8706214251
  H        -1.7217644400        1.0896443225       -4.3406031035
  H        -1.5003205045        1.6493512170       -6.8815548193
  H        -1.0806584680       -0.1081356453       -7.1520994864
  H        -2.6867808500        0.3920395441       -6.6484962406
      16
 i =      19, E =       -0.9838910760
  C         1.6589938346       -0.3479480344        5.0887844175
  C         1.1190345161       -0.6876000250        6.4439226432
  H         2.3797335655       -1.0937693747        4.7653630136
  H         0.8451815184       -0.4610196751        4.3674563389
  H         2.0249423938        0.7020359249        5.0227075384
  H         0.3804479010        0.1042683213        6.7732843055
  H         0.6057607562       -1.6758497030        6.5067022910
  H         1.9931531293       -0.7716518326        7.1109222008
  C        -1.1552822142        0.4285501534       -5.0236691035
  C        -1.6139825903        0.6121360991       -6.5199123552
  H        -1.2776142884       -0.6207774517       -4.6218379237
  H        -0.0926294843        0.7367726271       -4.8345688181
  H        -1.6898753562        1.0829698100       -4.3270219638
  H        -1.5150930821        1.6783810221       -6.8520647260
  H        -1.0681732784       -0.1416338347       -7.1382150484
  H        -2.6902758093        0.3990411691       -6.6431572920
      16
 i =      20, E =       -0.9748361436
  C         1.6544311798       -0.3500167158        5.0743213396
  C         1.1213254886       -0.6844267923        6.4356755026
  H         2.3578945946       -1.0934661034        4.7558104502
  H         0.8611435484       -0.4493346078        4.3403080354
  H         2.0218910909        0.7216553641        5.0247616120
  H         0.3474669179        0.1172715092        6.7553146149
  H         0.6044130310       -1.6885105060        6.4935830925
  H         1.9847063956       -0.7842762616        7.1069823380
  C        -1.1551405645        0.4312111400       -5.0163389707
  C        -1.6104632299        0.6090745122       -6.5079252777
  H        -1.2795003022       -0.6483362068       -4.6047969482
  H        -0.0824409697        0.7428904854       -4.8044222124
  H        -1.6616709940        1.0758739112       -4.3164230434
  H        -1.5259112511        1.6973283831       -6.8219193888
  H        -1.0586853996       -0.1655799675       -7.1234319498
  H        -2.6903040459        0.4048626606       -6.6357653059
      16
 i =      21, E =       -0.9703369329
  C         1.6494473303       -0.3512015932        5.0593629670
  C         1.1224144658       -0.6813334960        6.4283692628
  H         2.3460141503       -1.0942210569        4.7450850968
  H         0.8730251675       -0.4350491950        4.3109155189
  H         2.0184509231        0.7285292453        5.0264280556
  H         0.3285703912        0.1176461356        6.7360116588
  H         0.6072042129       -1.6910898719        6.4772119776
  H         1.9718887798       -0.7927289655        7.1061210471
  C        -1.1540908584        0.4329386401       -5.0083361919
  C        -1.6068858452        0.6060554210       -6.4955673597
  H        -1.2796591243       -0.6594203647       -4.5969556433
  H        -0.0816378515        0.7429963622       -4.7822894830
  H        -1.6413529621        1.0715152150       -4.3059846968
  H        -1.5320189468        1.7020438601       -6.7915073515
  H        -1.0542588772       -0.1761408985       -7.1062652046
  H        -2.6859484260        0.4089480229       -6.6260824586
      16
 i =      22, E =       -0.9739454108
  C         1.6441230709       -0.3511803641        5.0441630004
  C         1.1219251625       -0.6784068401        6.4217488208
  H         2.3459630088       -1.0973045708        4.7326431526
  H         0.8791689685       -0.4185516549        4.2794836728
  H         2.0146222290        0.7208698856        5.0270692658
  H         0.3254477624        0.1043846501        6.7156158389
  H         0.6141662239       -1.6827034003        6.4577840701
  H         1.9562864140       -0.7962479691        7.1088960184
  C        -1.1519189833        0.4333024114       -4.9996187685
  C        -1.6032396744        0.6031720998       -6.4828207846
  H        -1.2778602829       -0.6517634201       -4.5988474609
  H        -0.0900250990        0.7366978846       -4.7693472278
  H        -1.6318978183        1.0722148794       -4.2935588538
  H        -1.5327170081        1.6919157590       -6.7619036873
  H        -1.0552050157       -0.1722521939       -7.0868389951
  H        -2.6777253672        0.4106645608       -6.6140602630
      16
 i =      23, E =       -0.9817676593
  C         1.6385872061       -0.3501097236        5.0288002665
  C         1.1198582433       -0.6757134782        6.4154509484
  H         2.3563946930       -1.1015068279        4.7190167827
  H         0.8796137362       -0.4003966912        4.2473502554
  H         2.0113155217        0.7003402491        5.0260908333
  H         0.3364674546        0.0796781906        6.6953671118
  H         0.6239546794       -1.6655760469        6.4357542469
  H         1.9397296670       -0.7944560897        7.1157258397
  C        -1.1487695795        0.4323059200       -4.9901872370
  C        -1.5995572418        0.6004485009       -6.4694969978
  H        -1.2744343731       -0.6273543750       -4.6093124730
  H        -0.1045815428        0.7247797745       -4.7656631907
  H        -1.6340804950        1.0782399309       -4.2790093966
  H        -1.5274476901        1.6699056169       -6.7347380519
  H        -1.0600624535       -0.1556382462       -7.0668710497
  H        -2.6674585059        0.4093856648       -6.5998200599
      16
 i =      24, E =       -0.9857055394
  C         1.6329821612       -0.3485579199        5.0132054000
  C         1.1166528075       -0.6733385701        6.4090623690
  H         2.3734463293       -1.1038352115        4.7054487101
  H         0.8757891334       -0.3813163799        4.2167440167
  H         2.0103463372        0.6719793109        5.0230484557
  H         0.3563338437        0.0491076580        6.6774753947
  H         0.6340436676       -1.6448370516        6.4117518987
  H         1.9237282533       -0.7873184343        7.1264952227
  C        -1.1451289300        0.4304370730       -4.9800830116
  C        -1.5959457779        0.5978295937       -6.4552627921
  H        -1.2703321898       -0.5928012810       -4.6254103536
  H        -0.1197465421        0.7091344340       -4.7701425470
  H        -1.6463263937        1.0876380388       -4.2643712297
  H        -1.5158641256        1.6423575420       -6.7120424033
  H        -1.0657017190       -0.1306546554       -7.0495684114
  H        -2.6577362623        0.4046326094       -6.5836001131
      16
 i =      25, E =       -0.9822044907
  C         1.6274024748       -0.3473191232        4.9972600649
  C         1.1131847256       -0.6714615938        6.4021723117
  H         2.3923700786       -1.1011548705        4.6931841991
  H         0.8697312405       -0.3621676630        4.1900751226
  H         2.0142894347        0.6435806137        5.0177340788
  H         0.3760155390        0.0215669948        6.6650381560
  H         0.6412489970       -1.6275576180        6.3864834017
  H         1.9090712676       -0.7751271171        7.1402578124
  C        -1.1416749248        0.4286472836       -4.9694758412
  C        -1.5926114169        0.5951938673       -6.4397185960
  H        -1.2671963825       -0.5597606612       -4.6423531961
  H        -0.1283962272        0.6924249518       -4.7807419420
  H        -1.6654292747        1.0972309512       -4.2526881789
  H        -1.4979185273        1.6178757659       -6.6959240001
  H        -1.0678911824       -0.1034817673       -7.0390676893
  H        -2.6509914004        0.3962640061       -6.5656825561
      16
 i =      26, E =       -0.9788052175
  C         1.6218908614       -0.3471286509        4.9809017247
  C         1.1105009653       -0.6703650079        6.3944467760
  H         2.4089843741       -1.0915319656        4.6829287801
  H         0.8633073390       -0.3438177914        4.1692011668
  H         2.0257550652        0.6234833177        5.0102067787
  H         0.3849708368        0.0069998928        6.6612357770
  H         0.6428445141       -1.6203243634        6.3606890979
  H         1.8957458507       -0.7585170514        7.1551958397
  C        -1.1390044323        0.4281352925       -4.9586670606
  C        -1.5898015851        0.5924173344       -6.4225857518
  H        -1.2670832825       -0.5427892716       -4.6544038211
  H        -0.1243595834        0.6772336515       -4.7950918683
  H        -1.6875611494        1.1038884243       -4.2465818112
  H        -1.4740524248        1.6042878539       -6.6878548347
  H        -1.0628217512       -0.0800258834       -7.0388405789
  H        -2.6484734637        0.3846564122       -6.5463385879
      16
 i =      27, E =       -0.9837489651
  C         1.6165270594       -0.3483041461        4.9642030063
  C         1.1091961741       -0.6702330717        6.3857578109
  H         2.4204994552       -1.0748123545        4.6746287308
  H         0.8577218192       -0.3270190222        4.1549625497
  H         2.0458557177        0.6166538703        5.0006878164
  H         0.3770758892        0.0107468295        6.6672694219
  H         0.6379833051       -1.6258884254        6.3352582702
  H         1.8831596020       -0.7384651976        7.1688701545
  C        -1.1373617680        0.4297269817       -4.9478935214