    1000
 i =     177, E =     -282.4093948390
  C        11.8382430558       16.0962252085       12.1553518596
  C        10.5428273462       15.3648456154       12.5287853579
  H        12.5757090705       15.4019304037       11.7437652326
  H        11.6498037345       16.8711402758       11.4064970430
  H        12.2848243963       16.5752733002       13.0310324368
  H        10.7339936078       14.5776774146       13.2637667431
  H         9.8141137681       16.0571270616       12.9593916228
  H        10.0871351963       14.8997326442       11.6503039960
  C        18.6752023631       13.1169923097       21.8359364868
  C        19.9511772949       12.9567885035       22.6701801763
  H        18.9044801094       13.5095527521       20.8412283001
  H        18.1693211449       12.1551516585       21.7124427426
  H        17.9760593016       13.8072190539       22.3167712651
  H        20.4831654997       13.9079889505       22.7628864537
  H        19.7145950860       12.6028913335       23.6772919649
  H        20.6304628217       12.2338239353       22.2095499590
  C        13.0243726392       20.3256349211       11.9426121648
  C        12.6093177448       20.7806923080       10.5391418458
  H        13.9820576554       20.7688331557       12.2293918961
  H        12.2792161696       20.6219904375       12.6858840472
  H        13.1298816100       19.2379143474       11.9869325134
  H        11.6573306554       20.3290008153       10.2468164644
  H        12.4924577906       21.8668304288       10.4993162135
  H        13.3599899741       20.4952729893        9.7970996996
  C        13.8651654406       19.4057240204        2.0526437368
  C        15.1249628633       19.8699138451        1.3112584062
  H        13.1761752806       20.2399890299        2.2140329682
  H        13.3352492286       18.6383753495        1.4812397741
  H        14.1196673358       18.9838178308        3.0293517739
  H        15.8085529140       19.0334206010        1.1382090645
  H        14.8702356933       20.3028150144        0.3394821761
  H        15.6607538793       20.6290432852        1.8884962327
  C        19.4525080233        7.0101418595       14.7731736227
  C        19.6393956601        8.4936587571       15.1134876175
  H        19.9683816082        6.7535475724       13.8435071867
  H        19.8506785847        6.3719600716       15.5673263209
  H        18.3938590623        6.7677497919       14.6449172960
  H        20.6965228309        8.7331093735       15.2552690469
  H        19.2548798508        9.1298339584       14.3112815209
  H        19.1118423293        8.7551636926       16.0349561889
  C         9.7353187235        4.3345806530        5.2290168411
  C        10.4400907246        2.9803140038        5.0860901844
  H        10.3820058817        5.0620369030        5.7274980645
  H         9.4635970231        4.7401864228        4.2501138156
  H         8.8205160010        4.2383568423        5.8203467568
  H        10.7123787463        2.5755866420        6.0649553984
  H         9.7933766778        2.2531924788        4.5867682459
  H        11.3554546809        3.0759837394        4.4958283408
  C         2.9506929985       17.8324123519       11.9963579450
  C         2.1802954268       17.6608627009       13.3110473461
  H         3.9077950836       17.3040397161       12.0311066538
  H         2.3767992290       17.4376888391       11.1526285917
  H         3.1562815891       18.8884148327       11.7992505341
  H         1.9820837830       16.6046964437       13.5144353665
  H         2.7491185355       18.0652656412       14.1530505650
  H         1.2195242833       18.1824740513       13.2708567700
  C        16.9512904157       13.8738601196        6.2236848837
  C        16.9862570409       15.2880375599        6.8155697312
  H        17.4085796383       13.1517286111        6.9064638449
  H        15.9221284230       13.5553769035        6.0324113849
  H        17.4987662418       13.8326850398        5.2779216585
  H        16.4183538517       15.3367346393        7.7492606655
  H        18.0136583230       15.5962427759        7.0298619425
  H        16.5549610579       16.0132153250        6.1194904936
  C        10.3661971312        8.8566721719        1.1961118475
  C        11.2419400680        9.5719515109        2.2319465112
  H        10.6730035178        7.8137873054        1.0799237917
  H         9.3151476829        8.8652744579        1.4985729622
  H        10.4385600953        9.3411262891        0.2181973140
  H        10.9767428636       10.6304589413        2.3037812872
  H        11.1194821425        9.1250435378        3.2228166165
  H        12.3001331751        9.5077431131        1.9624129218
  C        11.7636617134       11.7150431956       20.0173995744
  C        12.5894265193       11.8690846964       21.3005043973
  H        11.1075599906       12.5773163759       19.8674616168
  H        12.4133033431       11.6304433279       19.1412640836
  H        11.1374102836       10.8195422394       20.0598568539
  H        13.2395331052       11.0032001493       21.4550499091
  H        13.2200282852       12.7614391185       21.2541416400
  H        11.9406154386       11.9611184973       22.1759517420
  C        12.4949199215       16.3267760922       16.4357338275
  C        11.8519085204       16.1022033737       17.8093290472
  H        13.4879867382       15.8714132803       16.3885361562
  H        11.8841595298       15.8862239574       15.6423914308
  H        12.6061865737       17.3945468190       16.2264871330
  H        11.7941898432       15.0357419097       18.0457215169
  H        12.4333088104       16.5872152794       18.5982038581
  H        10.8378879055       16.5120192133       17.8369211570
  C        19.9054680969       16.9843291332       -2.2981719270
  C        19.5869442554       16.9678293070       -0.7985231398
  H        20.8165918032       17.5556374573       -2.4966938691
  H        20.0536054339       15.9689660030       -2.6775559613
  H        19.0918390446       17.4411376143       -2.8683920706
  H        18.6692216037       16.4073402753       -0.5991633471
  H        20.3978811903       16.5003576333       -0.2327906660
  H        19.4506258658       17.9830957656       -0.4157958885
  C        13.3031025675        2.1480734302       13.6027370982
  C        12.0167979613        1.6101174213       14.2386408770
  H        13.8936337311        2.7111728581       14.3305992752
  H        13.9251710580        1.3318165544       13.2257723825
  H        13.0747146071        2.8125158976       12.7649247359
  H        11.4506215511        1.0075857461       13.5230736986
  H        12.2402879643        0.9845476508       15.1073956967
  H        11.3736990465        2.4292773805       14.5715421294
  C        15.9801312304       16.2502315881       18.3871045445
  C        15.7391300486       16.4483850819       19.8885149332
  H        17.0463236466       16.1328830545       18.1730884693
  H        15.4645030301       15.3578730059       18.0219287421
  H        15.6147777931       17.1081105383       17.8156606324
  H        16.1069649190       15.5915398616       20.4603725031
  H        16.2527145880       17.3424368044       20.2532684469
  H        14.6726007596       16.5629816294       20.1027854090
  C         4.1688905752       13.6021894076        4.3567357391
  C         3.9354402538       12.7912137777        3.0767431509
  H         3.3831464602       13.4066404393        5.0922420242
  H         5.1290074034       13.3454182752        4.8131207878
  H         4.1723445090       14.6752772993        4.1456036179
  H         4.7181565274       12.9864902174        2.3383934399
  H         3.9334558672       11.7185647441        3.2896046405
  H         2.9743286190       13.0471949660        2.6225300909
  C         7.6420346465       16.7849633365        6.8042095204
  C         7.1786082114       15.9610404019        5.5978875064
  H         7.3067685561       16.3270029424        7.7390811006
  H         8.7327881820       16.8546036825        6.8351567664
  H         7.2415771726       17.8017788671        6.7606410545
  H         7.5093642651       16.4174475825        4.6608857462
  H         7.5840545821       14.9460631324        5.6406948205
  H         6.0878020955       15.8890321617        5.5696528650
  C        21.8100891589       -0.7747248069       11.1008469138
  C        21.3306317274       -2.2019267245       10.8100989619
  H        22.3441968106       -0.3590593858       10.2415435960
  H        20.9662217580       -0.1161506265       11.3263415395
  H        22.4885194559       -0.7589216688       11.9585906487
  H        20.6730291411       -2.2239187120        9.9362660535
  H        22.1773306302       -2.8654009684       10.6110468048
  H        20.7760957947       -2.6092563500       11.6607376072
  C         4.6212182288       19.7186283097       20.9778108368
  C         4.0097933285       20.0727786817       22.3381745272
  H         5.7106915447       19.6497960242       21.0450296963
  H         4.2425645364       18.7577517709       20.6173545280
  H         4.3754532461       20.4784762282       20.2309947590
  H         4.2836391870       19.3331892647       23.0955553795
  H         4.3570396203       21.0514913211       22.6821637271
  H         2.9183979477       20.1036045721       22.2773637887
  C        18.6763247739       10.4107774096       10.2144573151
  C        17.8230279627        9.1391672071       10.1355821430
  H        18.4956825781       10.9449372525       11.1519183074
  H        19.7419587758       10.1698038699       10.1629526538
  H        18.4462926619       11.0893665715        9.3879110996
  H        18.0873427177        8.4401378401       10.9347554798
  H        16.7590182592        9.3731828308       10.2318285445
  H        17.9690560592        8.6304287945        9.1787423859
  C         5.3654245079       11.8497627783       14.6585112398
  C         5.8302785011       11.3894681014       16.0451324028
  H         5.7462376103       11.1873681409       13.8759867390
  H         4.2736666927       11.8533799071       14.5947846549
  H         5.7206415217       12.8614161420       14.4433924503
  H         5.4602593655       12.0611213049       16.8252883692
  H         5.4642356499       10.3833963965       16.2673452284
  H         6.9218952273       11.3702720000       16.1042872012
  C         8.0546444785       12.5753591151        3.0917259284
  C         7.5771472158       11.1185171184        3.1148834117
  H         8.1210368496       12.9817640279        4.1046005971
  H         9.0436394722       12.6548900455        2.6321080404
  H         7.3674054721       13.2060434281        2.5208068787
  H         7.5151379967       10.7109922845        2.1022407299
  H         8.2636862202       10.4907086960        3.6899991041
  H         6.5863166234       11.0363252055        3.5702523416
  C         3.3600909446       12.4305512241       11.5042687985
  C         2.9077641088       13.8225382716       11.9621065690
  H         2.9609032503       11.6514642554       12.1599609025
  H         3.0154704007       12.2229383270       10.4875717048
  H         4.4506769541       12.3496647194       11.5120284504
  H         3.2931964210       14.5980229866       11.2942862701
  H         1.8168670466       13.8990404801       11.9680651426
  H         3.2652556244       14.0385141337       12.9727777685
  C         8.5711702609        5.6459079463       -0.7769752905
  C         8.2425656052        5.4898719753        0.7124700490
  H         9.1741060156        6.5410367391       -0.9528907866
  H         9.1328382729        4.7831748007       -1.1468542927
  H         7.6575746482        5.7338435722       -1.3712636926
  H         7.7040664627        6.3646528530        1.0873719512
  H         7.6174141038        4.6093191225        0.8861115199
  H         9.1546179463        5.3770328015        1.3055242568
  C         5.0651714703        5.6024743560        7.8802671262
  C         6.2152891626        4.8065256342        8.5084514142
  H         5.3963879330        6.6002202209        7.5784803544
  H         4.6783584224        5.0953034517        6.9921849866
  H         4.2392221800        5.7202499999        8.5872868263
  H         6.6066662101        5.3153106472        9.3938787028
  H         5.8826718500        3.8091611114        8.8110839951
  H         7.0391216352        4.6843905735        7.7998927772
  C         8.9357378954       11.1460927733       12.4237041101
  C         8.5427223994       11.6051790545       11.0136557720
  H         8.2428963422       10.3849288912       12.7936101692
  H         9.9421237871       10.7167780388       12.4307670884
  H         8.9229216518       11.9837924934       13.1269453758
  H         8.6241430930       10.7826695720       10.2971000712
  H         7.5106728269       11.9668345243       10.9948644916
  H         9.1913423523       12.4161882013       10.6700599440
  C         4.6790750793       -0.3500336998        8.4410161522
  C         3.9572094425       -0.5952405379        9.7718464079
  H         4.9784240223       -1.2948818684        7.9779590564
  H         4.0304777087        0.1786156071        7.7366724677
  H         5.5790217652        0.2546355566        8.5890781568
  H         4.6079125232       -1.1145326952       10.4811006830
  H         3.6490023826        0.3489978835       10.2301566490
  H         3.0625872931       -1.2075392578        9.6241768462
  C         6.5678527489       -0.8130061272       17.9349416113
  C         6.3677136743        0.5748521348       17.3150734203
  H         7.4780099903       -1.2842303200       17.5543461589
  H         6.6533319738       -0.7474519035       19.0231467223
  H         5.7259314245       -1.4703604643       17.6998667352
  H         5.4480198106        1.0383255830       17.6824517194
  H         7.1995125864        1.2400522612       17.5616629541
  H         6.3014519489        0.5095923034       16.2253810419
  C        17.4483727877        3.4723519668        5.5696452061
  C        16.9011607389        4.2347567830        4.3570666266
  H        16.7975912548        3.5999576587        6.4391714607
  H        17.5212540789        2.4018469245        5.3589315088
  H        18.4452493426        3.8316028346        5.8403068553
  H        15.9084936466        3.8693419554        4.0788965238
  H        16.8184596251        5.3036746694        4.5729004903
  H        17.5581242662        4.1170044361        3.4907830699
  C         4.2451566852        8.9330933908        9.9661980793
  C         5.6927404887        8.5481449968       10.2951963186
  H         4.2051408703        9.8813608469        9.4230022354
  H         3.7672018589        8.1702871620        9.3453953811
  H         3.6523672990        9.0431296233       10.8786489589
  H         6.1665496535        9.3094254398       10.9215148192
  H         5.7317621471        7.5961141063       10.8324642286
  H         6.2881287319        8.4447595795        9.3836483150
  C         6.1105370402       18.2550142182       15.0629256248
  C         6.5096988369       19.2466567467       13.9642657042
  H         5.7388409565       17.3212091400       14.6320316295
  H         6.9650439810       18.0139209961       15.7015062469
  H         5.3213684385       18.6699474789       15.6959845023
  H         7.3067806379       18.8358192700       13.3387601266
  H         5.6588577239       19.4771774782       13.3169651514
  H         6.8679155970       20.1853919361       14.3959903560
  C         6.8413967963        7.4256634093        4.2628640011
  C         6.1073812908        6.0808957213        4.1980871865
  H         6.7581848874        7.8696008519        5.2591663266
  H         7.9043955357        7.3040545053        4.0346042504
  H         6.4211521448        8.1344866832        3.5437415909
  H         6.5145769571        5.3795051491        4.9313302375
  H         5.0407028451        6.2060395498        4.4054141303
  H         6.2054943651        5.6274697927        3.2076878571
  C        23.8139406714       17.1701513329        3.2302376355
  C        23.0978473662       15.9942746381        2.5550248287
  H        24.3723965144       17.7600551784        2.4979025300
  H        23.0980317713       17.8342912590        3.7227455995
  H        24.5200835411       16.8170524686        3.9873144336
  H        22.3819795427       16.3474589719        1.8077891289
  H        23.8121260268       15.3378401217        2.0503986158
  H        22.5501947363       15.3966229094        3.2887421869
  C        14.4848265605        9.3441299440        5.7110039037
  C        15.1508382053       10.1623020062        6.8236735592
  H        15.1436580636        8.5417165231        5.3672689013
  H        13.5540026384        8.8906492183        6.0632203517
  H        14.2453309400        9.9748520512        4.8502605622
  H        14.5052842743       10.9858021017        7.1417541115
  H        15.3588212509        9.5389858613        7.6979835775
  H        16.0979843153       10.5899491238        6.4831762970
  C         5.3001393896       16.1962866060        1.0419984746
  C         6.6626205785       16.8849226527        1.1850091074
  H         4.7195724213       16.2847454369        1.9644071429
  H         4.7165008793       16.6430433940        0.2324408804
  H         5.4220834195       15.1320768562        0.8212515726
  H         7.2477830104       16.7924505798        0.2656727598
  H         6.5437568677       17.9497165645        1.4039297679
  H         7.2415517123       16.4380593753        1.9982293540
  C         6.8033337623       11.2606697612        7.2234783243
  C         5.8432839621       12.2402422083        7.9088792407
  H         6.4422772108       10.2316572043        7.3083165314
  H         6.9049933466       11.4939092647        6.1603209182
  H         7.7989864298       11.3081948109        7.6738308320
  H         4.8466115300       12.1912786541        7.4611551382
  H         5.7449183071       12.0117480805        8.9735070402
  H         6.2040793910       13.2688941557        7.8175409200
  C         7.6454668774        0.4744420285       11.6805962621
  C         8.2369074352        0.9313310673       13.0195441708
  H         8.4371080283        0.2248518140       10.9684847106
  H         7.0190747992       -0.4116536058       11.8146704545
  H         7.0258763020        1.2581907765       11.2353017357
  H         8.8667504827        1.8161863980       12.8881186228
  H         7.4455127725        1.1827257963       13.7315077961
  H         8.8504226580        0.1429142311       13.4650342804
  C        10.9885624541        8.8068122388       15.5161721680
  C        10.4600424421       10.1736264412       15.9664197275
  H        10.5671538376        8.5251876359       14.5468986009
  H        12.0780302647        8.8216647450       15.4175207449
  H        10.7258954034        8.0278947627       16.2379907816
  H         9.3705591733       10.1615577700       16.0560389603
  H        10.8780331359       10.4534982331       16.9375129877
  H        10.7273430856       10.9521967874       15.2470882603
  C        13.2347638347        5.5486152808        7.8047537635
  C        14.7379822698        5.8533999290        7.8227024201
  H        13.0317575303        4.6043403496        7.2912286866
  H        12.8383622674        5.4695713815        8.8210769594
  H        12.6810470466        6.3385356177        7.2894342780
  H        15.2902988522        5.0679658430        8.3462031491
  H        15.1362511764        5.9242502146        6.8067936018
  H        14.9410991312        6.8010501552        8.3293198708
  C        15.7274117748       16.5434081824       13.8671698094
  C        17.1326241487       17.0527969546       14.2097264179
  H        15.5741832681       16.5141197985       12.7846782293
  H        15.5722402900       15.5333542904       14.2571391472
  H        14.9600602860       17.1934866459       14.2974202305
  H        17.3009351769       18.0489715871       13.7902787123
  H        17.2728031859       17.1151148980       15.2929222032
  H        17.8993410871       16.3841057115       13.8078686383
  C         4.1915976056        4.3891232321       16.5921207935
  C         4.5399869444        5.4603229581       17.6323540406
  H         3.1873599995        4.5463221837       16.1879376883
  H         4.8985855747        4.4094075913       15.7579622331
  H         4.2223696446        3.3897965533       17.0352132915
  H         3.8384284281        5.4344823703       18.4711329785
  H         5.5465325078        5.3061276837       18.0307570490
  H         4.5021996790        6.4605208231       17.1919435507
  C         5.9681759380        4.0899995171       12.6081652043
  C         4.4852123318        4.1024230583       12.2172407824
  H         6.5956578640        3.8074678972       11.7581012862
  H         6.2926479204        5.0765556186       12.9497053783
  H         6.1520816485        3.3770054690       13.4168157927
  H         3.8583219001        4.3853582037       13.0678909970
  H         4.2985774438        4.8164183019       11.4097614953
  H         4.1637009117        3.1137341023       11.8759712732
  C        -1.4280118471       15.4304826610       11.6323045356
  C        -2.5228795640       14.6463122495       10.8976270481
  H        -1.6680903910       16.4968903829       11.6728254017
  H        -1.3130694639       15.0724397811       12.6592843708
  H        -0.4625737828       15.3226669700       11.1297429407
  H        -2.2848336513       13.5794700912       10.8642092327
  H        -3.4885897527       14.7591384742       11.3982191488
  H        -2.6354198812       14.9975401786        9.8679210124
  C        14.6320110410       15.2785465556        1.5659237921
  C        14.6442227865       15.5294158226        3.0785785747
  H        15.6302664713       15.0174022705        1.2036614531
  H        13.9564507883       14.4573717654        1.3103703336
  H        14.2993552754       16.1680396091        1.0235536214
  H        13.6445378862       15.7853382372        3.4402291433
  H        14.9805421194       14.6412776226        3.6205870586
  H        15.3153056186       16.3541369856        3.3342546377
  C        12.2434279714       10.2488927427       10.0366416016
  C        12.9474337789        8.9411920273       10.4180327704
  H        12.3902783993       11.0108872986       10.8079027480
  H        12.6325727485       10.6428782282        9.0935786736
  H        11.1678347886       10.0914293587        9.9161300483
  H        12.8150434974        8.1851398672        9.6389458133
  H        14.0210877480        9.1007775336       10.5553440753
  H        12.5450651985        8.5383190474       11.3523362797
  C        15.2930216159       13.6722640641       10.9646036238
  C        15.6545280439       12.7892213740        9.7653641658
  H        15.9736205419       13.4928773766       11.8015006194
  H        15.3527118029       14.7323532307       10.7021336255
  H        14.2758279868       13.4655216258       11.3084047594
  H        15.5756881328       11.7294730435       10.0232230177
  H        14.9856421305       12.9812240381        8.9217930958
  H        16.6788168791       12.9817834718        9.4345346783
  C        15.9772698272        7.8611905500        0.4633800426
  C        16.5776427112        7.1076250153        1.6563977360
  H        16.6500530453        8.6528084156        0.1204121547
  H        15.7969709232        7.1840394608       -0.3761872896
  H        15.0230135713        8.3227416881        0.7328800441
  H        15.9153988629        6.3011128594        1.9822774031
  H        17.5417294885        6.6622302750        1.3946295967
  H        16.7334480106        7.7793403124        2.5060017821
  C        10.3297742928       18.8929331639       14.5238371504
  C        10.2447610615       19.8896486128       15.6849259052
  H        11.3630127015       18.5768227695       14.3571534629
  H         9.7316017414       18.0009190683       14.7305903463
  H         9.9621152622       19.3398099447       13.5958023981
  H        10.5834554247       19.4324411095       16.6190051712
  H        10.8685383578       20.7672134847       15.4936048002
  H         9.2171492846       20.2331920417       15.8304028718
  C         6.1638998062       12.3601659580       20.3101340065
  C         7.5055405575       12.5612979718       21.0255923667
  H         5.9200014809       13.2254263739       19.6865961047
  H         6.1911885033       11.4772691271       19.6648886340
  H         5.3526323867       12.2255800906       21.0317834942
  H         7.7698630067       11.6813113719       21.6190186321
  H         8.3106432877       12.7355617989       20.3062393817
  H         7.4631274077       13.4229232121       21.6981865646
  C         9.8161333443        6.5335380379       11.3758485915
  C        10.1761849975        5.8171760242       12.6823843303
  H        10.5540496571        6.3184750953       10.5979432866
  H         8.8356934698        6.2140248396       11.0113453830
  H         9.7837322562        7.6172746435       11.5202395467
  H         9.4531298774        6.0532296383       13.4682612273
  H        10.1847102917        4.7318371730       12.5466257548
  H        11.1669763579        6.1201692120       13.0333648504
  C        18.0027436478        7.0976498342       -3.2573525054
  C        17.8104896199        5.8337140123       -2.4111938862
  H        17.7731857340        6.9016511729       -4.3083838253
  H        17.3451200534        7.9015627527       -2.9146453722
  H        19.0339534802        7.4571731794       -3.1978812598
  H        18.4593690754        5.0266527156       -2.7616628089
  H        18.0492148532        6.0245751483       -1.3611148551
  H        16.7759646573        5.4820680873       -2.4643996620
  C         0.0664408972       11.8376104221       14.1863259812
  C        -0.2903470287       11.2625673422       12.8107643727
  H        -0.4657488684       12.7757741007       14.3691251424
  H        -0.2010194254       11.1380171925       14.9831635446
  H         1.1390783775       12.0374683553       14.2597187929
  H         0.2479073250       10.3287026059       12.6243648495
  H        -1.3612494966       11.0534251651       12.7408137471
  H        -0.0319240115       11.9652237566       12.0138684218
  C        14.8135573724       20.6769471919       15.4315277217
  C        16.0409224343       20.4492863788       16.3217525931
  H        14.5530381428       19.7669058594       14.8835928079
  H        13.9449928001       20.9703186889       16.0276142341
  H        15.0030426028       21.4691994227       14.7021442064
  H        16.3085013065       21.3641490058       16.8582392800
  H        15.8486812124       19.6668966926       17.0614475729
  H        16.9060512663       20.1430303842       15.7263811731
  C         3.9695935363       20.1621659802        4.5434254618
  C         5.4283286663       19.7325274145        4.3466344581
  H         3.4631447883       20.2807220419        3.5814739249
  H         3.4189667929       19.4181631970        5.1260015118
  H         3.9108306196       21.1161757578        5.0744893824
  H         5.9382879626       19.6274693871        5.3084364807
  H         5.4869143676       18.7710182297        3.8284368912
  H         5.9774962646       20.4693687173        3.7535294084
  C        18.8857780163        5.2593148516        9.2000015433
  C        19.6222043270        4.8769324563       10.4891472791
  H        19.4022688349        4.8661400697        8.3203232065
  H        17.8666197098        4.8626523052        9.1978986280
  H        18.8245726088        6.3452114106        9.0935163154
  H        19.1337849459        5.3162583632       11.3637723432
  H        19.6388203845        3.7917984782       10.6231465053
  H        20.6563471820        5.2319050630       10.4700474696
  C        19.7209469135        2.1311279760       -1.1553961608
  C        20.1751496395        3.3785373981       -0.3887223137
  H        20.4924863379        1.7992145948       -1.8559105313
  H        19.5123806891        1.3063421821       -0.4687802022
  H        18.8110841240        2.3316544530       -1.7276764805
  H        20.4095976153        4.1971565154       -1.0745889165
  H        19.3951517219        3.7254464955        0.2946609164
  H        21.0709559157        3.1688547411        0.2020966621
  C        18.6725698941        7.8195972227        5.9074493204
  C        19.2396018784        9.2400664175        5.8007653535
  H        19.3291152862        7.1809431682        6.5047420965
  H        17.6864158663        7.8250705548        6.3802446371
  H        18.5692328503        7.3654570716        4.9178616038
  H        18.5964684686        9.8726234258        5.1823444026
  H        19.3207684113        9.7054030312        6.7875064414
  H        20.2362302542        9.2297877117        5.3499308130
  C         8.7940482931        3.9721799263       15.9531933656
  C         9.0443561059        4.5055014987       17.3686915205
  H         7.9530208576        4.4897507744       15.4829586099
  H         9.6745919652        4.1159177790       15.3211853048
  H         8.5638874970        2.9031022124       15.9710099599
  H         9.2705660321        5.5755667495       17.3493234983
  H         8.1657320720        4.3571226877       18.0026818436
  H         9.8893108467        3.9925948003       17.8367392586
  C         2.0203168701       10.0382404163       17.0827905358
  C         2.7456167539        9.5464353753       18.3401905900
  H         2.6751157144        9.9909526492       16.2078796990
  H         1.1376243433        9.4263820886       16.8768863886